ITEM: TIMESTEP
100620
ITEM: NUMBER OF ATOMS
1000
ITEM: BOX BOUNDS
-5.02859426113 5.02859426113 
-5.02859426113 5.02859426113 
-5.02859426113 5.02859426113
ITEM: ATOMS id x y z rand 
1 -3.93171 -2.79982 -3.82415 0.874972082294 
2 -3.87886 -2.80101 -4.82277 1.91043994625 
3 -3.07821 -2.44014 -4.34902 0.264737833361 
4 -2.20613 -2.68962 -4.75013 -0.634117988233 
5 -2.96606 -2.74954 4.64621 -0.606830312684 
6 -3.56019 -1.92958 4.7374 0.193755056664 
7 -3.94572 -2.32703 3.90545 0.440176496919 
8 -3.57444 -1.44135 3.6854 -0.251469192624 
9 -3.8829 -0.978159 2.86762 -0.631977270797 
10 -4.27366 -1.65088 2.21182 0.805235487361 
11 2.08697 0.148986 -0.694303 -1.31273856168 
12 2.0872 0.277833 0.280926 -0.281581938527 
13 2.44833 -0.617689 0.590182 0.339348211008 
14 2.51815 -0.846051 -0.404097 0.25165736611 
15 3.14505 -0.164736 -0.0266557 -0.058521419741 
16 3.90779 0.423959 -0.287939 -0.771281071301 
17 4.72857 0.844431 -0.6717 -0.450386013991 
18 4.73227 -0.101918 -0.906829 1.11751749425 
19 4.78701 0.0545391 -1.93838 0.614555728253 
20 -4.63226 0.553219 -1.35289 -0.751204443218 
21 3.88341 -4.54413 2.59514 -0.925039686518 
22 4.57262 -5.0049 3.10717 1.24816933782 
23 3.83292 4.47824 2.79434 -0.110850244726 
24 3.38237 4.6589 1.91805 -0.591583060029 
25 3.40454 4.88385 0.945683 0.78859613467 
26 3.79634 5.01584 0.0253746 -0.0479106680703 
27 3.11199 4.93254 -0.70401 0.868916449603 
28 2.90348 -4.46038 -1.40255 1.11916437773 
29 2.29594 -3.88538 -0.937511 -0.368442385591 
30 1.73949 -3.06896 -0.75773 -1.03014455163 
31 2.00717 1.76461 4.51777 -0.866168290342 
32 0.987196 1.77494 4.44163 0.152137365404 
33 0.373588 2.40192 3.96017 0.715404800742 
34 -0.0736826 3.22357 4.30676 1.56163363728 
35 0.194277 3.60685 3.40725 1.48592907338 
36 1.02323 3.08263 3.36116 1.04943153324 
37 1.91835 3.3765 3.05517 0.996038682803 
38 1.31853 3.35473 2.25589 0.453981424174 
39 0.682235 3.78768 1.60017 0.783464083632 
40 -0.0922492 4.30964 1.24006 0.300416963542 
41 2.88701 2.50946 3.63804 0.527450555 
42 3.85991 2.60247 3.87449 -0.334556027148 
43 4.42793 2.20475 3.17431 -0.427740989383 
44 4.40125 1.59495 4.01034 1.87067389367 
45 3.98306 0.953667 4.64078 -0.29019620333 
46 3.20971 0.380825 4.80029 -0.228887191277 
47 2.62886 -0.402658 4.66518 -1.19862942781 
48 3.45058 -1.01162 4.77108 0.388219344294 
49 4.14171 -0.32611 4.60984 -0.692040994242 
50 4.5014 -1.26625 4.73492 0.966492574426 
51 -1.51994 -4.12348 3.01484 0.173542476147 
52 -2.05217 -3.39379 3.3689 0.824961236379 
53 -2.02216 -2.85153 4.24464 0.0426766300692 
54 -2.35492 -3.63556 4.7436 -0.552638237798 
55 -2.84885 -4.27743 -4.72369 -1.08067405413 
56 -3.09494 -4.43783 4.34894 0.325187913148 
57 -2.70471 4.81056 3.93965 -0.0709538834059 
58 -2.14851 -4.42071 3.84709 0.727308863752 
59 -2.34548 -4.99821 3.0565 -0.678798851511 
60 -2.26592 4.42122 2.29595 -0.248616418512 
61 -0.421073 2.21861 -2.38342 2.119372632 
62 -1.19425 2.73941 -2.02963 -1.32703688009 
63 -0.848169 3.54225 -1.54706 -0.236830307031 
64 -1.3912 4.00664 -2.21096 -1.20224707934 
65 -0.721144 3.46203 -2.71906 0.967289103893 
66 -0.239677 4.16413 -2.14069 -0.142777674457 
67 0.501276 4.81146 -1.93322 -0.145504926228 
68 1.05974 -5.03276 -2.71832 -0.378843690087 
69 1.33907 4.87587 -3.66966 -1.02124797461 
70 2.26438 4.63665 -3.41629 1.55581732558 
71 1.18618 3.76435 -2.1696 -0.95728558673 
72 1.16404 3.07275 -1.45232 0.0179178166081 
73 1.92878 2.96036 -0.777154 0.740435057059 
74 1.18564 2.29706 -0.698474 0.0208447292248 
75 0.930929 2.29559 0.286688 1.87371449778 
76 1.32029 1.39805 0.219086 -1.81629495065 
77 1.86957 1.4495 -0.628046 -1.11312056249 
78 2.02587 2.2163 -0.00466728 1.64667337716 
79 2.16846 2.40589 0.965487 -0.94011760952 
80 2.86114 2.29094 1.70462 -0.383522142672 
81 -3.2697 0.896119 2.36378 1.99827150715 
82 -3.29038 1.86179 2.21538 0.716713872597 
83 -2.74062 2.55694 1.73851 -0.280576868413 
84 -3.43438 2.76352 2.44263 1.05423614334 
85 -4.19878 3.21033 1.99541 -0.278142879097 
86 -4.14472 4.1409 1.67569 0.421809776314 
87 -4.67333 4.85188 1.24836 0.845304553015 
88 -3.93409 -4.93328 0.605189 1.03624741753 
89 -3.29912 4.54422 1.15441 0.188140631653 
90 -3.7454 3.97506 0.489968 -1.03503693787 
91 2.22168 3.51213 -1.79651 1.26184567719 
92 1.84152 3.10827 -2.60653 -0.866112172987 
93 1.02314 2.97998 -3.18671 -0.29811236065 
94 0.17246 3.10217 -2.60838 -0.827811411746 
95 0.14145 3.16909 -1.61324 -0.0439678434207 
96 0.516939 4.00049 -1.28003 1.68774208208 
97 0.806874 4.26346 -0.358634 1.46947093234 
98 1.67426 4.14939 0.128004 1.94195449065 
99 2.64585 4.40207 0.269786 2.08162793852 
100 2.06893 4.83311 0.944521 -1.37786542959 
101 2.61448 0.564559 2.87965 0.571756599694 
102 2.87375 1.49133 2.69845 -0.049805470527 
103 3.58831 1.57872 3.38906 -0.540205587421 
104 3.38002 0.697901 3.73917 1.27250208918 
105 3.90822 -0.130189 3.57571 -1.23325193261 
106 4.46748 -0.913988 3.64435 -1.37294293503 
107 -4.8255 -1.22266 3.12732 1.23857930363 
108 -4.61164 -1.44652 4.07392 0.561889321079 
109 4.70953 -2.11817 3.9575 1.64656009398 
110 3.75637 -1.80238 3.97002 -0.161464106104 
111 -4.7057 -5.02283 -1.02194 0.543008169398 
112 -4.08381 4.68402 -0.346148 -0.299416367818 
113 -3.13222 4.36244 -0.170767 0.633441453196 
114 -2.15986 4.33935 -0.446778 0.714505002376 
115 -2.04102 3.37174 -0.25203 -0.474493054476 
116 -1.46382 2.94813 -0.958132 0.833907445951 
117 -2.04203 3.68252 -1.35058 0.158768964972 
118 -2.58216 2.84052 -1.23451 -0.65915866373 
119 -2.81849 2.20761 -1.94779 0.746495682117 
120 -2.80103 2.44485 -2.88931 -0.64881498029 
121 -3.63467 1.67251 -1.0819 1.17324770385 
122 -2.66187 1.47724 -0.875806 -0.956791662632 
123 -3.24143 1.32848 -0.0913441 0.0788517272288 
124 -3.05216 2.27913 -0.276711 0.77625632523 
125 -3.10699 3.28814 -0.318064 -1.01630361254 
126 -3.71878 2.82028 -0.987499 -1.12821999624 
127 -4.05458 3.71854 -1.15184 -0.0738332063638 
128 -4.63969 4.29685 -1.7079 -1.16606256216 
129 4.92054 4.19544 -2.57767 1.59681657452 
130 5.03448 4.66412 -3.46891 0.4254990667 
131 3.85933 -4.84633 4.05626 -0.382760343907 
132 3.12752 4.61647 3.9529 0.366578704298 
133 2.83223 4.72892 4.93395 -0.0704079595974 
134 2.9666 3.7434 4.82092 -1.26659930032 
135 3.63574 3.54778 4.0819 -1.39198792956 
136 4.26294 4.2102 3.69199 0.64961797891 
137 4.71575 3.35917 3.90325 0.176320188368 
138 4.77656 4.12589 4.55521 -1.58753962577 
139 5.01416 4.94961 4.06543 -0.861549183649 
140 -4.61137 4.16573 3.59853 -0.937662784395 
141 0.430221 0.558882 3.19985 -0.708218974719 
142 0.130678 0.435334 2.26823 0.502138214184 
143 -0.335318 -0.242468 2.85836 1.44747900106 
144 -0.832338 0.597253 2.79309 -1.87086711614 
145 -1.19883 -0.122889 3.4191 -2.67940814453 
146 -1.40232 -1.13346 3.44193 -0.914073719968 
147 -1.67726 -1.70122 2.64664 -0.652634132029 
148 -1.80673 -2.30212 3.42591 -0.552678050276 
149 -0.993859 -2.89927 3.49906 -0.430065664298 
150 -1.30511 -3.66707 4.00735 -0.973729975222 
151 -0.618388 4.03125 4.71762 -0.39274336549 
152 -1.08674 3.55828 3.95778 -0.683170385962 
153 -0.733182 2.67071 3.7709 -0.767450229454 
154 -0.179422 2.50828 2.94455 0.341575015635 
155 -0.665057 3.38568 2.82973 1.92602225746 
156 -1.44343 3.68973 2.28334 -0.343831285023 
157 -2.33157 3.24666 2.37533 -0.763963791491 
158 -3.10938 3.81106 2.08471 1.62647072187 
159 -2.30162 3.70689 1.50264 0.327044735924 
160 -2.58085 3.90064 0.612241 0.0778382988358 
161 0.950678 0.963211 -3.75513 0.2077141155 
162 0.716841 0.992236 -4.73891 -1.03372635116 
163 0.116111 1.23314 4.52612 -0.801451302038 
164 0.607262 0.387741 4.31494 0.259706628767 
165 1.46742 0.746287 4.61198 -1.03597448771 
166 1.73011 1.15537 -4.59294 -0.219529193778 
167 2.72816 1.24887 -4.69657 -0.980480594293 
168 3.02059 1.45711 4.42334 0.374898159731 
169 3.73616 2.03519 4.77195 -1.01248292619 
170 3.95183 2.98911 4.98624 -0.10585535907 
171 2.28081 -3.30479 3.01392 1.69919898632 
172 2.15976 -2.38395 2.69016 -0.653034979835 
173 2.86286 -2.12393 3.37695 0.885132366103 
174 1.98815 -1.80796 3.73959 -1.84794328268 
175 1.86391 -0.848987 3.59812 -0.91033038553 
176 1.71894 0.0989831 3.30415 0.031185735775 
177 1.64884 0.477555 2.38289 1.36505227293 
178 1.66966 1.44896 2.51851 0.27174799572 
179 0.722702 1.3245 2.22533 1.2843592199 
180 -0.229698 1.52798 2.46067 1.19871694312 
181 1.30706 -3.46678 3.24915 -0.14574100835 
182 1.15735 -2.49418 3.304 -0.69450928197 
183 1.10181 -2.34366 2.32059 -0.569930465654 
184 0.820108 -1.5661 1.69171 -0.424096562043 
185 -0.153045 -1.69067 1.68768 0.843590148092 
186 -0.701731 -1.22318 2.43193 -0.1782437099 
187 -1.43065 -1.12824 1.75723 -0.736988576713 
188 -1.97279 -1.40466 0.959216 -0.332980579059 
189 -2.16353 -1.87489 0.111332 -1.10426427886 
190 -1.28379 -1.70844 -0.315484 -1.67602128608 
191 3.8406 4.51728 4.90518 0.258382698126 
192 4.63807 -4.93423 -4.93544 -1.62887194053 
193 -4.6697 -4.77331 -4.31265 -0.390057819161 
194 -4.0753 4.5229 -4.10974 0.2606084758 
195 -4.10111 4.22285 -3.15326 -0.413092977789 
196 -3.3748 3.57517 -2.90867 0.0637476314855 
197 -3.6382 4.16233 -2.16391 -1.16635738831 
198 -3.5309 3.18444 -1.94542 -0.324629723814 
199 -4.43958 3.30936 -2.39678 0.0608033166108 
200 -4.44022 2.50402 -1.81029 -0.971029474451 
201 -3.80425 0.254068 2.96375 0.645204406975 
202 -3.02596 0.757615 3.33443 0.558665120548 
203 -2.11737 0.387198 3.51653 -0.949037445647 
204 -2.34275 1.17345 4.08367 -1.12276500981 
205 -2.15717 1.939 3.49329 0.358179421256 
206 -2.23127 2.10146 2.49674 0.524485209129 
207 -2.20794 1.09672 2.63435 -0.654192252503 
208 -1.42367 1.38554 2.12351 -0.470246467562 
209 -1.12165 1.94314 2.89542 -0.894120702847 
210 -1.59471 2.7906 3.08429 2.38458322912 
211 -4.23306 3.3812 -0.218319 -0.118661617096 
212 -4.82788 2.88277 -0.795543 1.82155387645 
213 -5.01478 3.86618 -0.66902 0.126804492608 
214 4.37386 4.08839 0.0626923 0.597920126558 
215 -4.86535 3.96598 0.590966 0.143497474557 
216 4.44384 4.5735 0.891539 -0.502019637054 
217 5.04679 4.95652 0.199244 0.153548710143 
218 4.6451 -4.39184 -0.380842 -0.897425133986 
219 4.17051 -3.50758 -0.46065 -0.759964822783 
220 3.3213 -3.98593 -0.533996 0.631635960852 
221 -2.8222 1.37378 -2.94758 0.131460216786 
222 -2.01182 0.813133 -2.8883 2.09865406899 
223 -2.13878 1.23966 -1.9483 1.2014698209 
224 -1.40194 0.559249 -1.79377 -0.443359452025 
225 -0.516951 0.339101 -2.12689 0.448809197498 
226 -0.500411 0.275334 -1.13432 0.591439927522 
227 0.320719 0.59484 -0.729644 1.06320017668 
228 1.10747 0.369949 -0.211507 1.60429250725 
229 1.06967 0.0409725 0.746877 0.814991369158 
230 0.974291 0.052815 1.7247 0.0199876865832 
231 0.576256 -2.75998 0.458925 -0.595508726215 
232 0.236673 -1.85287 0.753089 0.533586225026 
233 -0.405335 -2.22206 0.0794968 -0.714302979839 
234 0.203929 -2.20628 -0.720993 -0.461641442169 
235 -0.26152 -1.42027 -1.12696 -1.13383619858 
236 -0.320507 -1.1762 -0.156509 -0.256780315647 
237 0.67047 -1.26248 -0.384037 0.547631347542 
238 1.35119 -0.706906 0.0655969 -0.894449931732 
239 1.24668 -1.5949 0.517792 -1.13183740334 
240 1.1954 -2.20359 -0.28296 -1.83873988053 
241 1.88531 4.55489 -2.29409 0.216603775765 
242 2.78593 4.15913 -2.48918 -0.14106660471 
243 3.03871 3.20642 -2.57286 -0.402592363849 
244 3.82002 3.83357 -2.5008 -2.22490545302 
245 4.30406 3.76904 -3.36649 0.191535145671 
246 4.58528 2.95656 -2.86972 -0.396974825012 
247 -4.73674 3.42715 -3.38696 -1.60419333834 
248 -4.43969 3.51911 -4.32267 0.981023359126 
249 4.9662 3.28311 -5.04001 0.598356587624 
250 4.52046 3.08542 -4.15806 0.303535339361 
251 -4.6988 -2.27677 3.21553 -0.963294876529 
252 4.69141 -2.78971 2.67749 0.287827565416 
253 4.28625 -1.88972 2.85347 0.339435618297 
254 4.54553 -1.16929 2.2173 0.192634692496 
255 3.89308 -1.25053 1.48664 -0.283517568396 
256 4.79285 -1.1065 1.14644 0.399252383401 
257 -4.92167 -1.86163 0.605338 0.670012428974 
258 4.28435 -1.5898 0.183572 -0.594810917085 
259 4.56272 -2.51078 -0.0588748 0.130009155684 
260 -4.56387 -2.85663 -0.0610152 -0.653692187713 
261 0.87026 -3.96002 -2.49537 0.533993380046 
262 1.68689 -3.41338 -2.60694 0.188557804015 
263 2.12817 -2.97775 -1.83311 0.871088049055 
264 2.65507 -2.85966 -2.70378 1.68609415989 
265 2.41076 -1.89257 -2.64966 1.00684357028 
266 1.75177 -1.9195 -1.88047 0.950116780511 
267 1.14132 -2.51179 -1.35292 -0.0242878381239 
268 0.783713 -2.72711 -2.27657 -1.63359928655 
269 0.746085 -1.81718 -2.6159 0.97851738743 
270 1.47763 -2.38782 -2.97041 -0.385931016148 
271 -2.48836 4.29774 -2.36572 1.75375348553 
272 -2.3302 3.29351 -2.21413 0.260366972434 
273 -1.69192 2.96872 -2.93552 1.0442258808 
274 -1.82831 2.08793 -2.52137 -0.104183071006 
275 -1.12737 1.43255 -2.79702 1.78106732142 
276 -0.865897 2.19579 -3.38522 -1.54329465279 
277 -1.04949 2.24943 -4.36211 1.85111899005 
278 -0.22463 1.66746 -4.41512 2.15102726477 
279 0.449133 2.28806 -4.8269 -0.446668427797 
280 -0.137397 3.06454 -4.68449 0.369818444073 
281 -0.616999 -2.19164 2.83986 -0.823461935224 
282 -0.375606 -2.79851 2.07749 0.859471448787 
283 0.403193 -3.092 2.62539 -1.20778121307 
284 1.27435 -3.35973 2.20167 0.25250701086 
285 1.96522 -4.04069 2.01218 -0.0289176597966 
286 2.17185 -3.08796 1.80219 -1.31383523788 
287 2.60001 -2.94048 0.905956 0.66455641669 
288 2.39703 -3.91125 1.06714 -0.898751215037 
289 3.10323 -4.32545 1.65354 0.398179947767 
290 2.94097 -3.99322 2.55917 -0.0198595170318 
291 1.71729 0.72855 1.33834 -0.660415811642 
292 2.22526 1.54908 1.52664 -0.309044380897 
293 2.40126 1.33151 0.55615 -1.39234451589 
294 3.09491 0.672684 0.705906 -0.122332427231 
295 4.04697 0.6548 0.979628 -0.551193931837 
296 4.31267 0.69074 1.93215 -0.699158077256 
297 3.88281 1.44894 2.4363 0.783617057919 
298 4.88582 1.52236 2.48806 -0.0130594717277 
299 4.65648 1.52719 1.52018 0.170915379628 
300 -4.81058 0.75504 1.1855 -0.711529081213 
301 1.00968 -0.549511 2.74831 -1.7908968709 
302 0.228243 -0.661872 2.08673 -0.146948201945 
303 -0.702003 -0.355752 1.85927 2.22579974931 
304 -0.736226 0.624974 1.75741 1.1166082229 
305 -0.743155 0.643897 0.762164 -2.27196647353 
306 -1.22646 1.42331 0.310028 -0.7488281788 
307 -0.660504 0.983141 -0.372214 -0.837388662394 
308 0.17208 1.56295 -0.348041 0.296575981819 
309 0.336847 0.856737 0.383088 -0.183280028267 
310 0.181094 1.03627 1.33667 0.612568509829 
311 2.76899 -2.21715 1.57844 1.4368009692 
312 2.35063 -1.68227 0.848802 -0.0123383340855 
313 1.84313 -1.6012 1.68719 -0.76626683306 
314 1.60898 -0.74683 1.20344 -0.430438291736 
315 0.638815 -0.907923 1.01208 1.43188201983 
316 0.104529 -0.0282362 1.09435 -1.0933730447 
317 -0.420781 -0.81397 0.86573 -1.09061536061 
318 -0.911453 -1.70799 0.846375 0.266260646206 
319 -1.62582 -2.36992 0.874602 0.292043089556 
320 -1.26305 -2.15711 1.78444 -2.13238898236 
321 1.40146 3.91593 -3.26528 -1.21887401998 
322 2.34135 3.54711 -3.39118 1.21087889295 
323 1.80518 2.85722 -3.89709 0.677238914253 
324 0.961378 3.07768 -4.40355 -2.65580641646 
325 0.965194 2.9912 4.67204 -0.660759191986 
326 1.78434 2.8666 4.10269 -0.372327331866 
327 1.39049 3.79752 3.96398 0.31455140087 
328 2.38324 3.73098 3.88846 0.480518931111 
329 3.07485 3.7752 3.17458 0.583424250123 
330 3.8798 3.23455 3.01901 0.139039213364 
331 -2.95711 -3.67456 3.71926 -0.48117860428 
332 -3.18283 -4.32829 2.99969 -0.477497304519 
333 -3.93504 -3.92957 2.49404 0.902391026239 
334 -4.40008 -3.35754 3.12069 -0.674478868193 
335 -4.05712 -4.02387 3.77973 -2.44067393294 
336 -4.28786 -3.22013 4.31204 0.615508281175 
337 -3.68462 -3.83973 4.86744 -0.461113471061 
338 -4.52407 -4.39769 4.75086 -0.632119450696 
339 -3.98359 5.0411 4.21434 -0.297157190627 
340 -3.68422 -4.92836 -4.91522 1.56197572431 
341 1.30453 -3.53163 1.17998 -0.576881445374 
342 1.36377 -4.51258 1.25431 -0.457269301328 
343 0.368872 -4.40653 1.08644 0.470099702342 
344 0.591546 4.92738 1.73234 -0.104892203868 
345 1.49346 4.53158 1.93388 -0.802363122394 
346 2.34179 -5.00574 1.92348 -1.13716120281 
347 2.48605 4.08609 2.23089 0.49839388628 
348 2.74937 4.02871 1.24837 -0.44879085653 
349 3.50386 3.8752 0.573292 -1.03147697756 
350 3.36963 3.03046 1.07317 0.429107209563 
351 -3.58877 0.635299 -0.891159 0.588139764216 
352 -4.23882 -0.0670332 -0.566911 0.714992739894 
353 -4.41945 -0.543819 -1.40583 -1.51180270571 
354 -3.59945 -0.102209 -1.7211 0.185267135552 
355 -4.16531 0.348633 -2.42037 0.712173089778 
356 -3.7113 0.97152 -3.07655 -0.359870230621 
357 -3.07731 0.221195 -2.91126 1.54013179604 
358 -2.75363 0.0896397 -3.84086 -0.737405917422 
359 -2.52267 -0.677898 -4.42685 1.31897824461 
360 -1.61747 -0.982149 -4.71641 0.814406406678 
361 -3.21862 3.83852 -4.03213 -0.673462890877 
362 -2.98426 4.77286 -4.08648 0.224244256852 
363 -3.12561 4.60286 -3.10425 0.0476498037316 
364 -2.11918 4.80225 -3.1827 0.0135577298191 
365 -1.67837 -4.37096 -3.30682 -0.462042956435 
366 -2.64077 -4.45413 -3.64667 -0.0933421888741 
367 -3.59899 -4.42662 -3.92601 -2.63147136293 
368 -4.04746 -4.82439 -3.13726 1.60112041271 
369 -4.66196 -4.09551 -3.50078 1.00635781034 
370 -4.20523 -3.6759 -4.27864 -2.33963279719 
371 3.46345 -3.7992 0.702455 1.40777539453 
372 4.27164 -4.35395 0.579269 0.53565238635 
373 4.89399 -3.6239 0.297074 2.00234635706 
374 -4.75044 -2.97587 0.921369 1.48653307877 
375 -4.18674 -2.25026 1.24939 0.84342466753 
376 -4.42579 -2.63972 2.13599 -0.398882269872 
377 -4.84656 -3.54756 1.97318 -0.434589681871 
378 4.9695 -4.48228 2.16451 0.726831086984 
379 4.78112 -3.88627 2.90548 -0.828670385119 
380 4.96517 -4.08597 3.85085 -0.419491775756 
381 4.56128 2.02737 -3.68777 0.463724395458 
382 -4.61947 2.49092 -3.76447 -0.571717568559 
383 -3.92267 1.75529 -3.7617 -0.00489874151892 
384 -3.83508 1.59809 -4.73725 0.808642264183 
385 -3.87372 0.661577 4.9696 1.11062928109 
386 -3.26432 -0.0352244 -4.77856 0.767076749018 
387 -2.98962 0.409377 4.41319 -2.76362034823 
388 -3.44634 1.26643 4.21206 0.0344215705569 
389 -2.78159 2.02923 4.36207 2.33288690712 
390 -2.15848 2.42883 -5.0312 -0.570726594665 
391 -4.16456 2.17972 -0.283638 0.311038658204 
392 -3.70321 2.71563 0.430389 -1.15812624878 
393 -4.41068 3.10569 0.994249 0.514071544753 
394 -4.9778 2.482 1.57131 0.365722223506 
395 -4.413 2.2964 2.411 1.3405415702 
396 -4.55036 2.12713 3.38222 0.0709494242572 
397 -4.03052 1.42421 2.88122 -0.309207162721 
398 -4.78808 1.15171 3.50823 0.796193538874 
399 4.42736 0.78989 3.15502 1.33624773537 
400 -4.82078 0.504392 2.6129 0.153797432368 
401 -0.755902 3.18098 -3.71681 -2.41199125009 
402 0.10279 2.64894 -3.68133 -0.323913075875 
403 0.362526 3.63842 -3.72703 1.88247006397 
404 0.116323 4.24557 -4.48705 1.16788567078 
405 1.00858 3.98205 -4.84962 -2.30669658422 
406 1.79974 3.94233 -4.23072 1.1669398689 
407 2.79067 4.17468 -4.2023 1.50110961779 
408 3.74137 3.91738 -4.34698 -0.741949699967 
409 4.12811 4.78225 -4.09447 0.526022604055 
410 4.87736 4.27195 -4.45103 0.572151749898 
411 4.72184 3.9521 2.89254 0.856239277344 
412 4.57946 4.58412 2.10858 -1.21891037991 
413 4.99549 3.7711 1.72124 -1.30356433421 
414 4.76966 3.04583 2.37738 0.449903725308 
415 -4.52604 3.11255 3.00449 -0.347326713925 
416 -3.89212 3.82857 2.85593 -1.17635819069 
417 -4.46083 4.56767 2.52843 0.00792768218073 
418 -4.47821 -4.69028 3.06737 -1.12929642289 
419 -3.59986 4.85444 3.25135 -0.316227876114 
420 -3.43227 4.87908 2.24894 0.407307618331 
421 2.06878 -5.02931 -0.479658 -0.0280459472168 
422 2.66859 -4.5131 0.148137 1.23173395361 
423 1.76632 -4.05678 0.20229 1.11899592192 
424 2.50174 -3.42477 0.0195392 -0.572670675157 
425 1.58747 -3.09119 0.287606 -0.201795957371 
426 2.24217 -2.38347 -0.0328637 -1.84914866094 
427 2.81468 -2.80665 -0.760723 2.18668397842 
428 2.97112 -2.24 -1.56705 -1.23425079023 
429 2.25192 -1.94204 -0.945885 0.165627185429 
430 1.63487 -1.18935 -0.762876 -0.366424049512 
431 0.132321 -2.61713 3.66567 1.54549125699 
432 0.647703 -3.17946 4.32537 0.151350724998 
433 0.902361 -2.21839 4.34303 2.26763410007 
434 0.0384318 -2.39529 4.83248 2.40632108724 
435 -0.464441 -3.14364 4.40801 -0.447054148764 
436 -0.097787 -3.70023 3.73231 1.08292131557 
437 0.585445 -4.18192 3.20139 -0.466873388372 
438 1.21833 -4.92243 3.41891 -0.0853615144939 
439 1.19376 -4.74363 2.42418 -0.677753030286 
440 0.365573 -4.23674 2.181 -1.80126095651 
441 0.162923 -0.327877 -3.88867 -0.534586851757 
442 -0.821539 -0.484141 -3.82022 0.989654965371 
443 -1.00207 -1.12435 -3.12701 -0.268185405651 
444 -1.06801 -1.7783 -2.36953 0.381608881305 
445 -1.25166 -2.19152 -3.26401 0.832896899317 
446 -2.08783 -1.7598 -2.91093 -1.38198699356 
447 -1.7511 -0.987385 -2.37928 1.26989749108 
448 -2.21226 -0.107087 -2.30887 -0.197780231875 
449 -1.98992 -0.424476 -1.40455 0.0516392173858 
450 -2.75401 -0.934973 -1.82904 0.50380872709 
451 1.72673 2.16414 3.34484 -2.34243366696 
452 2.31738 2.48424 2.61337 -0.142495873344 
453 1.64034 2.34488 1.91764 0.50925515434 
454 1.11775 2.85855 1.22865 1.1253945087 
455 0.145998 2.99561 1.13957 -0.110786943005 
456 -0.561621 3.46992 1.69133 -0.402556341923 
457 0.183639 3.17478 2.27397 -0.824561461927 
458 0.753809 2.35594 2.42825 -0.684434755668 
459 0.232446 2.08027 1.60285 -1.75207489582 
460 1.11968 1.72566 1.28642 0.328962833097 
461 1.83639 -4.28102 -1.92897 0.846000011359 
462 1.23678 -3.57472 -1.57992 -1.2734809147 
463 1.0359 -4.10997 -0.718091 0.0481712172452 
464 0.69656 -3.16616 -0.643882 -2.10409051845 
465 0.626084 -3.8019 0.142651 0.943910278776 
466 0.0702752 -4.63545 0.121538 0.0682479609173 
467 1.04345 -4.83389 0.0622075 -0.864678597275 
468 0.998971 4.56357 0.829555 0.017391494636 
469 0.649241 3.66452 0.52156 -0.367948817877 
470 0.746472 3.21969 -0.372924 0.607299566591 
471 -1.45856 -3.32276 -3.16265 1.08887384609 
472 -1.85183 -2.83708 -2.42356 0.293900999172 
473 -2.14323 -2.0415 -1.92546 0.303384661481 
474 -2.97695 -2.01812 -1.34571 0.00661071375316 
475 -2.12525 -2.28084 -0.844117 0.772679243144 
476 -2.29854 -1.29556 -0.747475 -0.704096702465 
477 -2.09584 -0.42472 -0.315368 0.895993241263 
478 -2.94718 -0.432273 -0.827757 1.17424901059 
479 -3.27657 0.0255317 0.0298837 -0.245646475967 
480 -3.47796 -0.26589 0.957587 -0.938788958127 
481 -1.15833 4.26236 1.42 -1.28566242305 
482 -2.04981 4.66784 1.20345 -0.597618443312 
483 -2.05889 -4.39614 1.22319 -2.36444234242 
484 -1.84743 -4.70749 2.14381 -0.406895825355 
485 -2.19294 -3.764 2.35988 -0.822365021617 
486 -3.02425 -4.16524 1.98863 0.657324924822 
487 -3.21694 -4.32019 1.06213 -0.0455102511003 
488 -2.70764 -3.49565 1.19325 -0.382706706652 
489 -1.96553 -3.05581 1.64921 -0.11332098235 
490 -1.39539 -2.95085 2.45418 1.13320592588 
491 1.88726 -2.47416 -4.72667 0.726292744996 
492 1.74754 -1.64895 -4.19131 0.184045141545 
493 2.45478 -1.35952 -3.57251 1.06110543863 
494 2.24336 -0.740682 -2.76322 1.15780086943 
495 2.16648 -0.279655 -3.62813 -0.353988151211 
496 1.20722 -0.0858273 -3.36486 1.51047919809 
497 1.00671 -0.923911 -3.87293 0.543821163125 
498 1.51797 -1.3301 -3.10918 -0.00864981555668 
499 0.93606 -1.89559 -3.65666 0.504695401979 
500 0.861755 -2.39664 -4.46847 -0.564471173679 
501 3.39892 -2.17916 -2.92113 -0.400786044373 
502 3.47275 -2.87583 -3.66183 0.0778111069391 
503 4.03339 -2.08034 -3.90677 0.391787634266 
504 3.51116 -1.3556 -3.457 -0.903653757018 
505 3.18776 -0.434877 -3.29461 -0.556312307914 
506 4.01275 0.0171313 -3.61323 0.0517586304753 
507 3.93294 0.386434 -4.51704 1.80741982652 
508 4.59857 0.850855 -3.91887 0.0575954053982 
509 -4.73876 1.21629 -3.28901 1.49607097289 
510 -4.759 1.15732 -2.29236 -2.6623786204 
511 -2.46815 4.7561 -1.31781 -0.911600148185 
512 -3.0424 3.97242 -1.16161 0.671800316951 
513 -3.61257 4.79809 -1.32469 0.495823292282 
514 -3.23507 -4.95425 -2.17101 -0.822129317714 
515 -2.54074 -4.37848 -2.58785 -1.12796030214 
516 -2.49806 -3.52156 -3.08867 -0.874293730353 
517 -3.46805 -3.53617 -3.12488 0.712804963601 
518 -3.10176 -2.64853 -3.30931 2.2670943481 
519 -3.62256 -1.8424 -3.46126 -1.30195590155 
520 -3.1391 -1.78645 -2.60997 -0.574235621564 
521 -4.11156 -1.88922 -4.41257 1.49238292674 
522 -4.71364 -2.08103 4.9104 0.761029005855 
523 -4.4861 -1.09508 -4.93698 0.00512203606826 
524 -4.23325 -0.311418 -4.38662 0.401927007336 
525 -4.44824 -1.02009 -3.76291 -0.334672506703 
526 -4.73944 -1.94042 -3.48009 -0.754249229827 
527 4.8241 -1.55823 -4.25947 -0.178015989858 
528 4.64195 -1.02632 -3.43415 1.71068434039 
529 4.1722 -0.559151 -2.71256 -0.303738695768 
530 4.46114 -1.4977 -2.50735 1.53844746177 
531 4.09742 -4.68142 1.63647 0.0664132759885 
532 4.27142 -3.72395 1.53798 -0.261167205539 
533 4.22344 -3.03405 0.838561 0.680825716905 
534 3.5016 -2.8959 0.124668 -0.249243311954 
535 3.55474 -2.10259 0.795868 0.415774963104 
536 3.34194 -1.15863 0.547006 1.49153940973 
537 3.11998 -1.81394 -0.159434 -0.0320530507231 
538 3.75756 -2.24456 -0.781151 -0.330343695359 
539 4.66261 -2.42741 -1.15064 1.0626131214 
540 5.02776 -2.39096 -2.04768 1.09538000009 
541 2.75247 -3.57932 -4.31607 -1.95047010892 
542 2.70939 -3.6527 -3.32459 2.37644033771 
543 1.90583 -3.19688 -3.63558 3.70792180353 
544 2.48941 -2.41887 -3.7841 0.873805925765 
545 3.02844 -2.53677 -4.60147 0.270916416295 
546 3.05028 -1.53915 -4.51002 -1.11938478741 
547 3.78549 -2.00531 -4.98714 1.50150320441 
548 4.11384 -2.88176 -4.63546 -1.13415105622 
549 4.86221 -3.15139 4.84542 0.133468917107 
550 -4.91657 -2.76418 -4.31951 0.387281402489 
551 3.49933 1.49505 1.3606 0.944058628065 
552 3.16158 0.752504 1.95957 -0.57680816759 
553 3.70349 0.347684 2.68101 1.07277767903 
554 3.04854 -0.330311 2.37552 0.507390404853 
555 2.81189 -0.977448 1.67016 -0.89363528831 
556 2.45035 -0.0527424 1.60364 0.141685330212 
557 1.99147 -0.559718 2.3421 0.607058741817 
558 2.49163 -1.2529 2.84786 -0.274902789317 
559 3.26711 -1.65969 2.39871 -1.64697752424 
560 3.47936 -0.927137 3.04765 0.0163702184695 
561 -4.06329 -4.52017 1.64164 -0.00600333281253 
562 -4.85066 -4.21795 1.07578 -0.100104274109 
563 -4.1852 -3.84101 0.502329 -1.19575984862 
564 -4.35401 -4.34485 -0.33536 0.500028950509 
565 -4.86799 -3.60219 -0.769988 1.19350489355 
566 4.9614 -4.16248 -1.54794 0.0953883120578 
567 4.03646 -4.38878 -1.23315 1.14730372792 
568 3.7268 -4.5425 -2.14063 0.0445776186536 
569 3.44012 4.66541 -1.75938 0.0849062375074 
570 2.48399 4.61971 -1.49251 -0.371869150527 
571 3.74822 2.25031 -0.491689 -0.308248820744 
572 2.84726 1.86786 -0.669502 0.553118179767 
573 2.85528 2.81144 -0.348126 0.576221345322 
574 2.58254 3.3421 0.460567 0.973337807759 
575 1.62462 3.18113 0.313844 0.438407796108 
576 1.71972 3.79266 1.12518 0.0142794984774 
577 2.28841 3.15408 1.63094 2.57614530843 
578 3.10889 3.24007 2.19189 1.09926893108 
579 3.43421 2.38759 2.62883 -0.0659153589621 
580 3.98644 2.68834 1.87081 -1.26727879611 
581 3.4061 4.40106 -3.35662 1.08236378062 
582 4.13789 4.7935 -2.81766 -0.53551404924 
583 4.52547 4.95246 -1.92076 0.622495464572 
584 5.00394 -4.67053 -2.69613 0.193311100513 
585 -4.32633 -4.78008 -1.99094 1.45445926709 
586 -3.95462 -4.18372 -1.27247 0.416040607022 
587 -3.34895 -3.90543 -2.0191 0.29327967048 
588 -4.22806 -3.89675 -2.52613 0.626154855353 
589 -4.48657 -3.22526 -1.83584 0.719317614146 
590 -3.61988 -2.95303 -1.42436 0.309770913036 
591 -1.18792 3.08847 4.97774 0.941209020026 
592 -1.7175 3.1973 -4.24836 -0.35844770823 
593 -2.63155 2.93398 -3.90237 0.904130846837 
594 -3.61578 2.77372 -3.90661 -0.412052711876 
595 -3.13518 2.47623 -4.6896 -0.540604791048 
596 -2.66888 3.3559 -4.86146 0.381943613876 
597 -3.07985 3.16872 4.33872 0.654226040957 
598 -3.70638 3.32254 -4.97638 1.8559328442 
599 -3.25573 4.17881 4.87387 0.0396819568631 
600 -4.25448 4.16645 4.83771 0.80973311576 
601 -2.63726 -1.55535 -3.76236 0.701069762464 
602 -1.94718 -0.887848 -3.64301 -1.29127634143 
603 -1.69748 0.0877952 -3.62143 -3.01446752129 
604 -1.2663 -0.0794051 -2.76175 0.485661062217 
605 -0.703801 0.548951 -3.25389 -0.743331587148 
606 -0.160453 1.36691 -3.44714 -0.219654149476 
607 -0.0816539 1.21838 -2.44368 1.20284077474 
608 0.381552 0.463739 -2.81849 -0.228692904331 
609 0.624751 0.681712 -1.86878 -0.950682401775 
610 0.945027 1.25954 -1.12204 -1.3001402494 
611 -0.919247 -0.856562 -1.92103 0.828261273334 
612 -1.48039 -1.42657 -1.36484 1.1081738461 
613 -0.84428 -2.18062 -1.20206 -1.11206349851 
614 -1.41813 -2.95889 -1.39049 1.07782143075 
615 -0.809301 -2.77669 -2.14378 -0.105482250693 
616 -0.00354681 -2.29069 -1.8384 0.0453272593171 
617 0.174657 -3.23955 -1.61808 0.186780435228 
618 0.367571 -4.21779 -1.65107 0.920819167139 
619 -0.127095 -4.05024 -0.817353 0.506458942514 
620 0.420756 -4.88629 -0.822705 -1.26612941499 
621 -1.4579 3.97576 -3.26811 -1.18405139528 
622 -2.44238 3.77271 -3.24491 0.434522579324 
623 -2.20303 4.16418 -4.14382 1.12917907958 
624 -1.68197 3.9717 -4.96327 0.283010655249 
625 -0.927899 4.0341 -4.33502 -0.3200947312 
626 -0.456561 4.19934 -3.44663 0.199514864983 
627 0.404422 4.29748 -2.93981 1.81454042982 
628 0.245993 -5.03632 -3.58907 -0.611072427881 
629 -0.310271 -4.69388 -4.33314 -0.377481097035 
630 -0.929711 4.87804 -4.92631 0.476764193586 
631 -3.19223 1.78513 3.28964 -3.74554429708 
632 -3.58209 2.68064 3.47604 -1.02175779734 
633 -2.64512 2.85029 3.29418 1.21390971139 
634 -2.0054 2.92049 4.0607 0.515664570407 
635 -2.26027 3.8962 4.17781 1.3188059703 
636 -1.49853 4.51548 4.23167 1.61279552345 
637 -1.08753 -4.695 3.8421 0.352982626219 
638 -0.497386 -4.29523 4.55454 -0.205310264081 
639 0.221903 -4.91928 4.90601 0.31854150776 
640 0.811077 -4.70682 -4.41036 -0.344532996149 
641 -0.100501 -1.33131 -2.27595 0.442175568304 
642 0.643448 -1.47377 -1.62267 -0.923972069109 
643 1.34652 -0.996589 -2.15543 -1.17956306296 
644 1.32448 -0.000335015 -2.3099 0.0598041067755 
645 1.70782 0.636106 -1.64626 -0.501921595783 
646 2.18044 -0.23994 -1.69927 -0.960205381445 
647 2.49808 -1.17939 -1.63995 -0.53845232556 
648 3.33833 -1.2986 -1.1389 -0.917168456377 
649 4.01965 -1.78549 -1.68628 0.150697297331 
650 4.18369 -0.787143 -1.70761 0.747420135446 
651 2.74794 2.61301 4.7333 1.3098104416 
652 2.57125 2.22734 -4.412 0.14560139051 